/home/phillipt/mosdef/foyer_clp/CLP.lammps - created by mBuild; units = lj

47 atoms
42 bonds
51 angles
6 dihedrals
0 impropers

9 atom types
10 bond types
16 angle types
2 dihedral types

0.000000 4.728616 xlo xhi
0.000000 5.500000 ylo yhi
0.000000 2.148172 zlo zhi

Masses

1	3.000000	# BBD
2	3.000000	# BBG
3	3.000000	# BBK
4	3.000000	# BBO
5	3.000000	# BBP
6	1.000000	# HBG
7	1.000000	# HBP
8	1.000000	# INA
9	1.000000	# INC

Pair Coeffs # lj 
#	reduced_epsilon 		reduced_sigma 
1	0.00000		0.00000		# BBD
2	0.00000		0.00000		# BBG
3	0.00000		0.00000		# BBK
4	0.00000		0.00000		# BBO
5	0.00000		0.00000		# BBP
6	0.00000		0.00000		# HBG
7	0.00000		0.00000		# HBP
8	0.00000		0.00000		# INA
9	0.00000		0.00000		# INC

Bond Coeffs # harmonic
#	reduced_k		reduced_req
1	1.195		0.5		# BBG	BBO
2	1.195		0.37		# BBD	HBP
3	1.195		0.5		# BBD	BBG
4	1.195		0.5		# BBD	BBO
5	1.195		0.5		# BBG	BBP
6	1.195		0.5		# BBK	BBP
7	1.195		0.5		# BBG	BBK
8	1.195		0.5		# BBO	BBP
9	1.195		0.37		# BBP	HBP
10	1.195		0.37		# BBG	HBG

Angle Coeffs # harmonic
#	reduced_k		theteq(deg)
1	35.851		90.00000	# BBO	BBG	HBG
2	35.851		90.00000	# BBD	BBG	HBG
3	2.39		180.00000	# BBG	BBP	BBO
4	2.39		180.00000	# BBG	BBK	BBP
5	35.851		90.00000	# BBP	BBG	HBG
6	35.851		90.00000	# BBK	BBP	HBP
7	2.39		180.00000	# BBG	BBO	BBP
8	35.851		90.00000	# BBK	BBG	HBG
9	35.851		90.00000	# BBG	BBD	HBP
10	35.851		90.00000	# BBO	BBD	HBP
11	2.39		180.00000	# BBD	BBG	BBO
12	35.851		90.00000	# BBG	BBP	HBP
13	2.39		180.00000	# BBD	BBO	BBG
14	2.39		180.00000	# BBK	BBG	BBP
15	2.39		180.00000	# BBG	BBD	BBO
16	35.851		90.00000	# BBO	BBP	HBP

Dihedral Coeffs # charmm
#k, n, phi, weight
1	3.58500	1	0	1.00000	# HBG	BBG	BBD	HBP
2	3.58500	1	0	1.00000	# HBG	BBG	BBP	HBP

Atoms

1	0	5	0.0000e+00	-7.286160	15.000000	-0.740000
2	0	7	0.0000e+00	-4.081866	15.000000	1.110000
3	0	3	0.0000e+00	-7.286160	10.000000	-0.740000
4	0	2	0.0000e+00	-7.286160	5.000000	-0.740000
5	0	6	0.0000e+00	-4.081866	5.000000	1.110000
6	0	5	0.0000e+00	-7.286160	-0.000000	-0.740000
7	0	7	0.0000e+00	-4.081866	-0.000000	1.110000
8	0	4	0.0000e+00	-7.286160	-5.000000	-0.740000
9	0	2	0.0000e+00	-7.286160	-10.000000	-0.740000
10	0	6	0.0000e+00	-4.081866	-10.000000	1.110000
11	0	1	0.0000e+00	-7.286160	-15.000000	-0.740000
12	0	7	0.0000e+00	-4.081866	-15.000000	1.110000
13	0	4	0.0000e+00	-7.286160	-20.000000	-0.740000
14	0	2	0.0000e+00	-7.286160	-25.000000	-0.740000
15	0	6	0.0000e+00	-4.081866	-25.000000	1.110000
16	0	5	0.0000e+00	3.742221	20.000000	-6.481718
17	0	7	0.0000e+00	1.892221	20.000000	-3.277424
18	0	3	0.0000e+00	3.742221	15.000000	-6.481718
19	0	2	0.0000e+00	3.742221	10.000000	-6.481718
20	0	6	0.0000e+00	1.892221	10.000000	-3.277424
21	0	5	0.0000e+00	3.742221	5.000000	-6.481718
22	0	7	0.0000e+00	1.892221	5.000000	-3.277424
23	0	4	0.0000e+00	3.742221	-0.000000	-6.481718
24	0	2	0.0000e+00	3.742221	-5.000000	-6.481718
25	0	6	0.0000e+00	1.892221	-5.000000	-3.277424
26	0	1	0.0000e+00	3.742221	-10.000000	-6.481718
27	0	7	0.0000e+00	1.892221	-10.000000	-3.277424
28	0	4	0.0000e+00	3.742221	-15.000000	-6.481718
29	0	2	0.0000e+00	3.742221	-20.000000	-6.481718
30	0	6	0.0000e+00	1.892221	-20.000000	-3.277424
31	0	5	0.0000e+00	3.742221	25.000000	6.481718
32	0	7	0.0000e+00	1.892221	25.000000	3.277424
33	0	3	0.0000e+00	3.742221	20.000000	6.481718
34	0	2	0.0000e+00	3.742221	15.000000	6.481718
35	0	6	0.0000e+00	1.892221	15.000000	3.277424
36	0	5	0.0000e+00	3.742221	10.000000	6.481718
37	0	7	0.0000e+00	1.892221	10.000000	3.277424
38	0	4	0.0000e+00	3.742221	5.000000	6.481718
39	0	2	0.0000e+00	3.742221	-0.000000	6.481718
40	0	6	0.0000e+00	1.892221	-0.000000	3.277424
41	0	1	0.0000e+00	3.742221	-5.000000	6.481718
42	0	7	0.0000e+00	1.892221	-5.000000	3.277424
43	0	4	0.0000e+00	3.742221	-10.000000	6.481718
44	0	2	0.0000e+00	3.742221	-15.000000	6.481718
45	0	6	0.0000e+00	1.892221	-15.000000	3.277424
46	0	9	0.0000e+00	20.000000	10.000000	10.000000
47	0	8	0.0000e+00	35.000000	10.000000	10.000000

Bonds

1	6	1	3
2	9	1	2
3	7	3	4
4	5	4	6
5	10	4	5
6	9	6	7
7	8	6	8
8	10	9	10
9	3	9	11
10	1	9	8
11	2	12	11
12	1	13	14
13	4	13	11
14	10	14	15
15	9	17	16
16	6	18	16
17	5	19	21
18	7	19	18
19	10	20	19
20	9	22	21
21	8	23	21
22	1	24	23
23	10	25	24
24	2	26	27
25	3	26	24
26	4	26	28
27	10	29	30
28	1	29	28
29	6	31	33
30	9	31	32
31	7	34	33
32	10	35	34
33	5	36	34
34	8	36	38
35	9	37	36
36	1	39	38
37	10	39	40
38	4	41	43
39	3	41	39
40	2	41	42
41	1	44	43
42	10	45	44

Angles

1	4	1	3	4
2	6	2	1	3
3	8	3	4	5
4	14	3	4	6
5	12	4	6	7
6	3	4	6	8
7	5	5	4	6
8	7	6	8	9
9	16	7	6	8
10	1	8	9	10
11	11	8	9	11
12	9	9	11	12
13	15	9	11	13
14	2	10	9	11
15	13	11	13	14
16	10	12	11	13
17	1	13	14	15
18	4	16	18	19
19	6	17	16	18
20	8	18	19	20
21	14	18	19	21
22	12	19	21	22
23	3	19	21	23
24	5	20	19	21
25	7	21	23	24
26	16	22	21	23
27	1	23	24	25
28	11	23	24	26
29	9	24	26	27
30	15	24	26	28
31	2	25	24	26
32	13	26	28	29
33	10	27	26	28
34	1	28	29	30
35	4	31	33	34
36	6	32	31	33
37	8	33	34	35
38	14	33	34	36
39	12	34	36	37
40	3	34	36	38
41	5	35	34	36
42	7	36	38	39
43	16	37	36	38
44	1	38	39	40
45	11	38	39	41
46	9	39	41	42
47	15	39	41	43
48	2	40	39	41
49	13	41	43	44
50	10	42	41	43
51	1	43	44	45

Dihedrals

1	2	5	4	6	7
2	1	10	9	11	12
3	2	20	19	21	22
4	1	25	24	26	27
5	2	35	34	36	37
6	1	40	39	41	42
